ITEM: TIMESTEP
2500
ITEM: NUMBER OF ATOMS
400
ITEM: BOX BOUNDS pp pp pp
0.0000000000000000e+00 1.6579999999999998e+01
0.0000000000000000e+00 1.6579999999999998e+01
0.0000000000000000e+00 2.6527999999999999e+01
ITEM: ATOMS id type c_structure
1 1 5
2 1 5
3 1 5
11 1 5
13 1 5
51 1 3
53 1 3
61 1 3
63 1 3
4 1 3
5 1 5
15 1 5
55 1 3
65 1 3
6 1 3
7 1 3
8 1 3
17 1 3
57 1 3
67 1 3
9 1 5
10 1 3
19 1 3
59 1 3
69 1 3
12 1 3
21 1 5
23 1 5
71 1 3
73 1 3
14 1 3
25 1 5
75 1 3
16 1 3
18 1 3
27 1 5
77 1 3
20 1 3
29 1 5
79 1 3
22 1 3
31 1 5
32 1 3
33 1 3
81 1 3
83 1 3
24 1 3
34 1 3
35 1 5
85 1 3
26 1 3
28 1 3
36 1 3
37 1 5
38 1 3
87 1 3
30 1 3
39 1 3
40 1 3
89 1 3
41 1 5
42 1 5
43 1 5
91 1 3
93 1 3
44 1 5
45 1 5
95 1 3
46 1 3
47 1 3
48 1 3
97 1 3
49 1 5
50 1 3
99 1 3
52 1 3
101 1 3
103 1 3
111 1 3
113 1 3
54 1 3
105 1 3
115 1 3
56 1 3
58 1 3
107 1 3
117 1 3
60 1 3
109 1 3
119 1 3
62 1 3
121 1 3
123 1 3
64 1 3
125 1 3
66 1 3
68 1 3
127 1 3
70 1 3
129 1 3
72 1 3
82 1 3
131 1 3
133 1 3
74 1 3
84 1 3
135 1 3
76 1 3
78 1 3
86 1 3
88 1 3
137 1 3
80 1 3
90 1 3
139 1 3
92 1 3
141 1 3
143 1 3
94 1 3
145 1 3
96 1 3
98 1 3
147 1 3
100 1 3
149 1 3
102 1 3
151 1 5
153 1 3
161 1 3
163 1 3
104 1 3
155 1 3
165 1 3
106 1 3
108 1 3
157 1 3
167 1 3
110 1 3
159 1 3
169 1 3
112 1 3
171 1 3
173 1 3
114 1 3
175 1 3
116 1 3
118 1 3
177 1 3
120 1 3
179 1 3
122 1 3
132 1 3
181 1 3
183 1 3
124 1 3
134 1 3
185 1 3
126 1 3
128 1 3
136 1 3
138 1 3
187 1 3
130 1 3
140 1 3
189 1 3
142 1 3
191 1 3
193 1 3
144 1 3
195 1 3
146 1 3
148 1 3
197 1 3
150 1 3
199 1 3
152 1 5
211 1 5
203 1 5
262 1 5
154 1 3
215 1 5
156 1 5
158 1 5
217 1 5
265 1 5
267 1 5
160 1 5
209 1 5
219 1 5
210 1 5
162 1 5
223 1 5
264 1 5
221 1 5
292 1 5
164 1 3
225 1 5
216 1 5
226 1 5
166 1 5
168 1 5
227 1 5
170 1 3
229 1 5
172 1 5
182 1 3
222 1 5
231 1 5
174 1 5
184 1 5
235 1 5
236 1 5
176 1 5
178 1 5
186 1 5
188 1 5
237 1 5
180 1 3
190 1 3
321 1 5
242 1 5
201 1 5
192 1 5
241 1 5
243 1 5
205 1 5
255 1 5
194 1 5
245 1 5
206 1 5
196 1 5
198 1 5
247 1 5
200 1 5
249 1 5
213 1 5
282 1 5
271 1 5
342 1 5
308 1 5
296 1 5
246 1 5
306 1 5
274 1 5
259 1 5
327 1 5
238 1 5
248 1 5
288 1 5
208 1 5
319 1 5
314 1 5
212 1 5
395 1 5
312 1 5
323 1 5
335 1 5
218 1 5
280 1 5
277 1 5
377 1 5
279 1 5
257 1 5
261 1 5
381 1 5
322 1 5
272 1 5
253 1 5
234 1 5
251 1 5
233 1 5
224 1 5
276 1 5
239 1 5
287 1 5
289 1 5
345 1 5
284 1 5
270 1 5
339 1 5
244 1 5
313 1 5
232 1 5
295 1 5
317 1 5
393 1 5
291 1 5
305 1 5
207 1 5
286 1 5
256 1 5
250 1 5
240 1 5
297 1 5
343 1 5
202 1 5
204 1 5
260 1 5
254 1 5
304 1 5
365 1 5
315 1 5
357 1 5
355 1 5
278 1 5
228 1 5
268 1 5
301 1 5
358 1 5
363 1 5
379 1 5
361 1 5
266 1 5
324 1 5
311 1 5
273 1 5
329 1 5
258 1 5
337 1 5
318 1 5
220 1 5
310 1 5
214 1 5
373 1 5
283 1 5
383 1 5
300 1 5
275 1 5
326 1 5
344 1 5
325 1 5
285 1 5
348 1 5
333 1 5
387 1 5
331 1 5
320 1 5
263 1 5
303 1 5
350 1 5
293 1 5
346 1 5
336 1 5
307 1 5
294 1 5
230 1 5
397 1 5
281 1 5
341 1 5
290 1 5
330 1 5
391 1 5
299 1 5
302 1 5
351 1 5
360 1 5
354 1 5
356 1 5
367 1 5
369 1 5
347 1 5
309 1 5
359 1 5
269 1 5
362 1 5
364 1 5
375 1 5
316 1 5
334 1 5
352 1 5
366 1 5
368 1 5
378 1 5
340 1 5
328 1 5
370 1 5
371 1 5
372 1 5
382 1 5
374 1 5
384 1 5
385 1 5
338 1 5
376 1 5
386 1 5
388 1 5
349 1 5
332 1 5
380 1 5
390 1 5
392 1 5
389 1 5
353 1 5
252 1 5
394 1 5
298 1 5
396 1 5
398 1 5
399 1 5
400 1 5
ITEM: TIMESTEP
2600
ITEM: NUMBER OF ATOMS
400
ITEM: BOX BOUNDS pp pp pp
-6.8646932064023820e-06 1.6580006864693178e+01
-6.8646932064023820e-06 1.6580006864693178e+01
-1.0983509122427840e-05 2.6528010983509105e+01
ITEM: ATOMS id type c_structure
1 1 5
2 1 3
3 1 5
11 1 3
13 1 5
51 1 3
53 1 3
61 1 3
63 1 3
4 1 3
5 1 5
15 1 3
55 1 3
65 1 3
6 1 3
7 1 5
8 1 3
17 1 3
57 1 3
67 1 3
9 1 5
10 1 3
19 1 5
59 1 3
69 1 3
12 1 5
21 1 3
23 1 5
71 1 3
73 1 5
14 1 5
25 1 5
75 1 5
16 1 3
18 1 3
27 1 5
77 1 3
20 1 3
29 1 5
79 1 3
22 1 3
31 1 5
32 1 3
33 1 3
81 1 3
83 1 3
24 1 5
34 1 3
35 1 5
85 1 3
26 1 5
28 1 3
36 1 3
37 1 5
38 1 5
87 1 3
30 1 3
39 1 5
40 1 3
89 1 3
41 1 5
42 1 5
43 1 5
91 1 3
93 1 3
44 1 3
45 1 3
95 1 3
46 1 3
47 1 5
48 1 5
97 1 3
49 1 5
50 1 5
99 1 3
52 1 3
101 1 3
103 1 3
111 1 3
113 1 3
54 1 3
105 1 3
115 1 3
56 1 3
58 1 3
107 1 5
117 1 3
60 1 3
109 1 3
119 1 3
62 1 3
121 1 3
123 1 3
64 1 3
125 1 3
66 1 3
68 1 3
127 1 3
70 1 3
129 1 3
72 1 3
82 1 5
131 1 5
133 1 3
74 1 3
84 1 3
135 1 3
76 1 3
78 1 3
86 1 3
88 1 3
137 1 3
80 1 3
90 1 5
139 1 3
92 1 3
141 1 5
143 1 3
94 1 3
145 1 3
96 1 3
98 1 3
147 1 3
100 1 3
149 1 3
102 1 3
151 1 3
153 1 3
161 1 3
163 1 5
104 1 5
155 1 5
165 1 5
106 1 5
108 1 5
157 1 5
167 1 5
110 1 3
159 1 3
169 1 3
112 1 3
171 1 3
173 1 5
114 1 5
175 1 5
116 1 5
118 1 3
177 1 3
120 1 3
179 1 5
122 1 3
132 1 5
181 1 3
183 1 3
124 1 3
134 1 3
185 1 3
126 1 3
128 1 3
136 1 5
138 1 5
187 1 5
130 1 3
140 1 5
189 1 5
142 1 3
191 1 3
193 1 3
144 1 3
195 1 5
146 1 5
148 1 5
197 1 5
150 1 3
199 1 5
152 1 5
211 1 5
203 1 5
262 1 5
154 1 5
215 1 5
156 1 5
158 1 5
217 1 5
265 1 5
267 1 5
160 1 5
209 1 5
219 1 5
210 1 5
162 1 5
223 1 5
264 1 5
221 1 5
292 1 5
164 1 5
225 1 5
216 1 5
226 1 5
166 1 5
168 1 5
227 1 5
170 1 5
229 1 5
172 1 3
182 1 3
222 1 5
231 1 5
174 1 5
184 1 5
235 1 5
236 1 5
176 1 5
178 1 5
186 1 5
188 1 5
237 1 5
180 1 5
190 1 5
321 1 5
242 1 5
201 1 5
192 1 5
241 1 5
243 1 5
205 1 5
255 1 5
194 1 5
245 1 5
206 1 5
196 1 5
198 1 5
247 1 5
200 1 5
249 1 5
213 1 5
282 1 5
271 1 5
342 1 5
308 1 5
296 1 5
246 1 5
306 1 5
274 1 5
259 1 5
327 1 5
238 1 5
248 1 5
288 1 5
208 1 5
319 1 5
314 1 5
212 1 5
395 1 5
312 1 5
323 1 5
335 1 5
218 1 5
280 1 5
277 1 5
377 1 5
279 1 5
257 1 5
261 1 5
381 1 5
322 1 5
272 1 5
253 1 5
234 1 5
251 1 5
233 1 5
224 1 5
276 1 5
239 1 5
287 1 5
289 1 5
345 1 5
284 1 5
270 1 5
339 1 5
244 1 5
313 1 5
232 1 5
295 1 5
317 1 5
393 1 5
291 1 5
305 1 5
207 1 5
286 1 5
256 1 5
250 1 5
240 1 5
297 1 5
343 1 5
202 1 5
204 1 5
260 1 5
254 1 5
304 1 5
365 1 5
315 1 5
357 1 5
355 1 5
278 1 5
228 1 5
268 1 5
301 1 5
358 1 5
363 1 5
379 1 5
361 1 5
266 1 5
324 1 5
311 1 5
273 1 5
329 1 5
258 1 5
337 1 5
318 1 5
220 1 5
310 1 5
214 1 5
373 1 5
283 1 5
383 1 5
300 1 5
275 1 5
326 1 5
344 1 5
325 1 5
285 1 5
348 1 5
333 1 5
387 1 5
331 1 5
320 1 5
263 1 5
303 1 5
350 1 5
293 1 5
346 1 5
336 1 5
307 1 5
294 1 5
230 1 5
397 1 5
281 1 5
341 1 5
290 1 5
330 1 5
391 1 5
299 1 5
302 1 5
351 1 5
360 1 5
354 1 5
356 1 5
367 1 5
369 1 5
347 1 5
309 1 5
359 1 5
269 1 5
362 1 5
364 1 5
375 1 5
316 1 5
334 1 5
352 1 5
366 1 5
368 1 5
378 1 5
340 1 5
328 1 5
370 1 5
371 1 5
372 1 5
382 1 5
374 1 5
384 1 5
385 1 5
338 1 5
376 1 5
386 1 5
388 1 5
349 1 5
332 1 5
380 1 5
390 1 5
392 1 5
389 1 5
353 1 5
252 1 5
394 1 5
298 1 5
396 1 5
398 1 5
399 1 5
400 1 5
ITEM: TIMESTEP
2700
ITEM: NUMBER OF ATOMS
400
ITEM: BOX BOUNDS pp pp pp
-2.8007965674328196e-05 1.6580028007965680e+01
-2.8007965674328196e-05 1.6580028007965680e+01
-4.4812745082122557e-05 2.6528044812745051e+01
ITEM: ATOMS id type c_structure
1 1 5
2 1 5
3 1 5
11 1 5
13 1 5
51 1 5
53 1 3
61 1 3
63 1 3
4 1 3
5 1 3
15 1 5
55 1 3
65 1 5
6 1 3
7 1 3
8 1 3
17 1 5
57 1 3
67 1 3
9 1 5
10 1 5
19 1 5
59 1 3
69 1 3
12 1 5
21 1 5
23 1 5
71 1 3
73 1 5
14 1 5
25 1 5
75 1 5
16 1 5
18 1 3
27 1 5
77 1 3
20 1 3
29 1 5
79 1 3
22 1 5
31 1 5
32 1 5
33 1 5
81 1 3
83 1 3
24 1 5
34 1 5
35 1 5
85 1 3
26 1 3
28 1 5
36 1 3
37 1 5
38 1 3
87 1 3
30 1 3
39 1 5
40 1 3
89 1 3
41 1 5
42 1 5
43 1 5
91 1 5
93 1 3
44 1 5
45 1 5
95 1 3
46 1 3
47 1 5
48 1 3
97 1 3
49 1 5
50 1 5
99 1 3
52 1 3
101 1 3
103 1 5
111 1 3
113 1 5
54 1 3
105 1 3
115 1 3
56 1 3
58 1 3
107 1 3
117 1 3
60 1 3
109 1 3
119 1 3
62 1 3
121 1 3
123 1 3
64 1 5
125 1 3
66 1 3
68 1 3
127 1 5
70 1 3
129 1 3
72 1 3
82 1 5
131 1 3
133 1 3
74 1 5
84 1 3
135 1 3
76 1 3
78 1 3
86 1 3
88 1 3
137 1 5
80 1 3
90 1 3
139 1 3
92 1 5
141 1 5
143 1 5
94 1 3
145 1 3
96 1 3
98 1 3
147 1 3
100 1 3
149 1 3
102 1 5
151 1 3
153 1 5
161 1 5
163 1 5
104 1 5
155 1 5
165 1 5
106 1 3
108 1 5
157 1 5
167 1 5
110 1 3
159 1 5
169 1 5
112 1 3
171 1 5
173 1 3
114 1 5
175 1 3
116 1 3
118 1 3
177 1 5
120 1 3
179 1 3
122 1 3
132 1 5
181 1 3
183 1 3
124 1 3
134 1 5
185 1 5
126 1 5
128 1 5
136 1 3
138 1 3
187 1 5
130 1 3
140 1 3
189 1 3
142 1 5
191 1 3
193 1 5
144 1 5
195 1 5
146 1 3
148 1 3
197 1 5
150 1 3
199 1 3
152 1 3
211 1 5
203 1 5
262 1 5
154 1 5
215 1 5
156 1 5
158 1 5
217 1 5
265 1 5
267 1 5
160 1 5
209 1 5
219 1 5
210 1 5
162 1 5
223 1 5
264 1 5
221 1 5
292 1 5
164 1 5
225 1 5
216 1 5
226 1 5
166 1 5
168 1 5
227 1 5
170 1 5
229 1 5
172 1 5
182 1 5
222 1 5
231 1 5
174 1 5
184 1 5
235 1 5
236 1 5
176 1 5
178 1 5
186 1 5
188 1 5
237 1 5
180 1 3
190 1 3
321 1 5
242 1 5
201 1 5
192 1 3
241 1 5
243 1 5
205 1 5
255 1 5
194 1 5
245 1 5
206 1 5
196 1 5
198 1 5
247 1 5
200 1 3
249 1 5
213 1 5
282 1 5
271 1 5
342 1 5
308 1 5
296 1 5
246 1 5
306 1 5
274 1 5
259 1 5
327 1 5
238 1 5
248 1 5
288 1 5
208 1 5
319 1 5
314 1 5
212 1 5
395 1 5
312 1 5
323 1 5
335 1 5
218 1 5
280 1 5
277 1 5
377 1 5
279 1 5
257 1 5
261 1 5
381 1 5
322 1 5
272 1 5
253 1 5
234 1 5
251 1 5
233 1 5
224 1 5
276 1 5
239 1 5
287 1 5
289 1 5
345 1 5
284 1 5
270 1 5
339 1 5
244 1 5
313 1 5
232 1 5
295 1 5
317 1 5
393 1 5
291 1 5
305 1 5
207 1 5
286 1 5
256 1 5
250 1 5
240 1 5
297 1 5
343 1 5
202 1 5
204 1 5
260 1 5
254 1 5
304 1 5
365 1 5
315 1 5
357 1 5
355 1 5
278 1 5
228 1 5
268 1 5
301 1 5
358 1 5
363 1 5
379 1 5
361 1 5
266 1 5
324 1 5
311 1 5
273 1 5
329 1 5
258 1 5
337 1 5
318 1 5
220 1 5
310 1 5
214 1 5
373 1 5
283 1 5
383 1 5
300 1 5
275 1 5
326 1 5
344 1 5
325 1 5
285 1 5
348 1 5
333 1 5
387 1 5
331 1 5
320 1 5
263 1 5
303 1 5
350 1 5
293 1 5
346 1 5
336 1 5
307 1 5
294 1 5
230 1 5
397 1 5
281 1 5
341 1 5
290 1 5
330 1 5
391 1 5
299 1 5
302 1 5
351 1 5
360 1 5
354 1 5
356 1 5
367 1 5
369 1 5
347 1 5
309 1 5
359 1 5
269 1 5
362 1 5
364 1 5
375 1 5
316 1 5
334 1 5
352 1 5
366 1 5
368 1 5
378 1 5
340 1 5
328 1 5
370 1 5
371 1 5
372 1 5
382 1 5
374 1 5
384 1 5
385 1 5
338 1 5
376 1 5
386 1 5
388 1 5
349 1 5
332 1 5
380 1 5
390 1 5
392 1 5
389 1 5
353 1 5
252 1 5
394 1 5
298 1 5
396 1 5
398 1 5
399 1 5
400 1 5
ITEM: TIMESTEP
2800
ITEM: NUMBER OF ATOMS
400
ITEM: BOX BOUNDS pp pp pp
-6.2855393443779679e-05 1.6580062855393443e+01
-6.2855393443779679e-05 1.6580062855393443e+01
-1.0056862952354780e-04 2.6528100568629476e+01
ITEM: ATOMS id type c_structure
1 1 5
2 1 5
3 1 5
11 1 5
13 1 5
51 1 5
53 1 5
61 1 5
63 1 3
4 1 5
5 1 3
15 1 3
55 1 5
65 1 3
6 1 3
7 1 5
8 1 5
17 1 3
57 1 3
67 1 3
9 1 5
10 1 5
19 1 5
59 1 5
69 1 5
12 1 5
21 1 3
23 1 5
71 1 3
73 1 5
14 1 5
25 1 5
75 1 3
16 1 5
18 1 5
27 1 5
77 1 5
20 1 5
29 1 5
79 1 3
22 1 5
31 1 5
32 1 5
33 1 5
81 1 5
83 1 3
24 1 5
34 1 3
35 1 5
85 1 3
26 1 5
28 1 5
36 1 5
37 1 5
38 1 5
87 1 5
30 1 3
39 1 5
40 1 5
89 1 3
41 1 5
42 1 5
43 1 5
91 1 5
93 1 3
44 1 5
45 1 3
95 1 3
46 1 3
47 1 5
48 1 5
97 1 3
49 1 5
50 1 5
99 1 3
52 1 3
101 1 3
103 1 3
111 1 3
113 1 5
54 1 5
105 1 3
115 1 5
56 1 3
58 1 3
107 1 3
117 1 3
60 1 5
109 1 3
119 1 3
62 1 3
121 1 5
123 1 5
64 1 5
125 1 3
66 1 3
68 1 3
127 1 3
70 1 3
129 1 3
72 1 5
82 1 5
131 1 5
133 1 5
74 1 3
84 1 5
135 1 5
76 1 3
78 1 3
86 1 3
88 1 3
137 1 3
80 1 5
90 1 5
139 1 3
92 1 5
141 1 5
143 1 5
94 1 5
145 1 5
96 1 3
98 1 3
147 1 3
100 1 5
149 1 3
102 1 3
151 1 3
153 1 3
161 1 3
163 1 3
104 1 5
155 1 3
165 1 3
106 1 3
108 1 5
157 1 5
167 1 5
110 1 3
159 1 5
169 1 5
112 1 3
171 1 3
173 1 3
114 1 5
175 1 3
116 1 5
118 1 5
177 1 5
120 1 3
179 1 3
122 1 5
132 1 3
181 1 3
183 1 3
124 1 3
134 1 5
185 1 5
126 1 3
128 1 3
136 1 5
138 1 3
187 1 5
130 1 3
140 1 3
189 1 3
142 1 3
191 1 3
193 1 3
144 1 5
195 1 5
146 1 5
148 1 3
197 1 5
150 1 3
199 1 3
152 1 5
211 1 5
203 1 5
262 1 5
154 1 5
215 1 5
156 1 5
158 1 5
217 1 5
265 1 5
267 1 5
160 1 5
209 1 5
219 1 5
210 1 5
162 1 5
223 1 5
264 1 5
221 1 5
292 1 5
164 1 5
225 1 5
216 1 5
226 1 5
166 1 5
168 1 5
227 1 5
170 1 5
229 1 5
172 1 5
182 1 5
222 1 5
231 1 5
174 1 5
184 1 3
235 1 5
236 1 5
176 1 5
178 1 3
186 1 5
188 1 5
237 1 5
180 1 5
190 1 5
321 1 5
242 1 5
201 1 5
192 1 3
241 1 5
243 1 5
205 1 5
255 1 5
194 1 3
245 1 5
206 1 5
196 1 5
198 1 5
247 1 5
200 1 3
249 1 5
213 1 5
282 1 5
271 1 5
342 1 5
308 1 5
296 1 5
246 1 5
306 1 5
274 1 5
259 1 5
327 1 5
238 1 5
248 1 5
288 1 5
208 1 5
319 1 5
314 1 5
212 1 5
395 1 5
312 1 5
323 1 5
335 1 5
218 1 5
280 1 5
277 1 5
377 1 5
279 1 5
257 1 5
261 1 5
381 1 5
322 1 5
272 1 5
253 1 5
234 1 5
251 1 5
233 1 5
224 1 5
276 1 5
239 1 5
287 1 5
289 1 5
345 1 5
284 1 5
270 1 5
339 1 5
244 1 5
313 1 5
232 1 5
295 1 5
317 1 5
393 1 5
291 1 5
305 1 5
207 1 5
286 1 5
256 1 5
250 1 5
240 1 5
297 1 5
343 1 5
202 1 5
204 1 5
260 1 5
254 1 5
304 1 5
365 1 5
315 1 5
357 1 5
355 1 5
278 1 5
228 1 5
268 1 5
301 1 5
358 1 5
363 1 5
379 1 5
361 1 5
266 1 5
324 1 5
311 1 5
273 1 5
329 1 5
258 1 5
337 1 5
318 1 5
220 1 5
310 1 5
214 1 5
373 1 5
283 1 5
383 1 5
300 1 5
275 1 5
326 1 5
344 1 5
325 1 5
285 1 5
348 1 5
333 1 5
387 1 5
331 1 5
320 1 5
263 1 5
303 1 5
350 1 5
293 1 5
346 1 5
336 1 5
307 1 5
294 1 5
230 1 5
397 1 5
281 1 5
341 1 5
290 1 5
330 1 5
391 1 5
299 1 5
302 1 5
351 1 5
360 1 5
354 1 5
356 1 5
367 1 5
369 1 5
347 1 5
309 1 5
359 1 5
269 1 5
362 1 5
364 1 5
375 1 5
316 1 5
334 1 5
352 1 5
366 1 5
368 1 5
378 1 5
340 1 5
328 1 5
370 1 5
371 1 5
372 1 5
382 1 5
374 1 5
384 1 5
385 1 5
338 1 5
376 1 5
386 1 5
388 1 5
349 1 5
332 1 5
380 1 5
390 1 5
392 1 5
389 1 5
353 1 5
252 1 5
394 1 5
298 1 5
396 1 5
398 1 5
399 1 5
400 1 5
ITEM: TIMESTEP
2900
ITEM: NUMBER OF ATOMS
400
ITEM: BOX BOUNDS pp pp pp
-1.1113094148823354e-04 1.6580111130941500e+01
-1.1113094148823354e-04 1.6580111130941500e+01
-1.7780950638472638e-04 2.6528177809506325e+01
ITEM: ATOMS id type c_structure
1 1 5
2 1 3
3 1 3
11 1 5
13 1 5
51 1 5
53 1 3
61 1 3
63 1 3
4 1 3
5 1 5
15 1 5
55 1 5
65 1 3
6 1 5
7 1 5
8 1 5
17 1 5
57 1 5
67 1 5
9 1 5
10 1 5
19 1 5
59 1 5
69 1 5
12 1 5
21 1 5
23 1 5
71 1 3
73 1 5
14 1 5
25 1 5
75 1 5
16 1 5
18 1 5
27 1 5
77 1 3
20 1 5
29 1 5
79 1 3
22 1 3
31 1 3
32 1 3
33 1 5
81 1 3
83 1 3
24 1 5
34 1 5
35 1 5
85 1 3
26 1 5
28 1 3
36 1 3
37 1 5
38 1 3
87 1 3
30 1 3
39 1 3
40 1 3
89 1 3
41 1 5
42 1 3
43 1 5
91 1 5
93 1 3
44 1 5
45 1 5
95 1 3
46 1 5
47 1 5
48 1 5
97 1 5
49 1 5
50 1 5
99 1 3
52 1 3
101 1 5
103 1 3
111 1 3
113 1 3
54 1 3
105 1 3
115 1 3
56 1 5
58 1 5
107 1 5
117 1 3
60 1 5
109 1 3
119 1 3
62 1 3
121 1 3
123 1 5
64 1 3
125 1 5
66 1 3
68 1 3
127 1 3
70 1 3
129 1 3
72 1 3
82 1 3
131 1 3
133 1 5
74 1 5
84 1 3
135 1 5
76 1 3
78 1 3
86 1 3
88 1 3
137 1 5
80 1 3
90 1 3
139 1 3
92 1 5
141 1 5
143 1 3
94 1 3
145 1 3
96 1 5
98 1 5
147 1 3
100 1 5
149 1 3
102 1 3
151 1 5
153 1 3
161 1 3
163 1 3
104 1 3
155 1 3
165 1 3
106 1 3
108 1 3
157 1 5
167 1 3
110 1 5
159 1 5
169 1 3
112 1 3
171 1 5
173 1 5
114 1 5
175 1 5
116 1 3
118 1 3
177 1 5
120 1 3
179 1 3
122 1 5
132 1 3
181 1 5
183 1 5
124 1 5
134 1 5
185 1 5
126 1 5
128 1 3
136 1 5
138 1 3
187 1 5
130 1 5
140 1 3
189 1 5
142 1 3
191 1 3
193 1 5
144 1 3
195 1 5
146 1 3
148 1 3
197 1 3
150 1 5
199 1 5
152 1 3
211 1 5
203 1 5
262 1 3
154 1 5
215 1 5
156 1 5
158 1 5
217 1 5
265 1 5
267 1 5
160 1 5
209 1 5
219 1 5
210 1 5
162 1 3
223 1 5
264 1 5
221 1 5
292 1 5
164 1 5
225 1 5
216 1 3
226 1 5
166 1 5
168 1 3
227 1 5
170 1 3
229 1 5
172 1 5
182 1 3
222 1 5
231 1 5
174 1 5
184 1 5
235 1 5
236 1 5
176 1 5
178 1 3
186 1 5
188 1 5
237 1 5
180 1 5
190 1 5
321 1 5
242 1 5
201 1 5
192 1 3
241 1 5
243 1 5
205 1 5
255 1 5
194 1 5
245 1 5
206 1 5
196 1 5
198 1 5
247 1 5
200 1 5
249 1 5
213 1 5
282 1 5
271 1 5
342 1 5
308 1 5
296 1 5
246 1 5
306 1 5
274 1 5
259 1 5
327 1 5
238 1 5
248 1 5
288 1 5
208 1 5
319 1 5
314 1 5
212 1 5
395 1 5
312 1 5
323 1 5
335 1 5
218 1 5
280 1 5
277 1 5
377 1 3
279 1 5
257 1 5
261 1 5
381 1 5
322 1 5
272 1 5
253 1 5
234 1 5
251 1 5
233 1 5
224 1 5
276 1 5
239 1 5
287 1 5
289 1 5
345 1 5
284 1 5
270 1 5
339 1 5
244 1 5
313 1 5
232 1 5
295 1 5
317 1 5
393 1 5
291 1 5
305 1 5
207 1 5
286 1 5
256 1 5
250 1 5
240 1 5
297 1 5
343 1 5
202 1 5
204 1 5
260 1 5
254 1 5
304 1 5
365 1 5
315 1 5
357 1 5
355 1 5
278 1 5
228 1 5
268 1 5
301 1 5
358 1 5
363 1 5
379 1 5
361 1 5
266 1 5
324 1 5
311 1 5
273 1 5
329 1 5
258 1 5
337 1 5
318 1 5
220 1 5
310 1 5
214 1 5
373 1 5
283 1 5
383 1 5
300 1 5
275 1 5
326 1 5
344 1 5
325 1 5
285 1 5
348 1 5
333 1 5
387 1 5
331 1 5
320 1 5
263 1 5
303 1 5
350 1 5
293 1 5
346 1 5
336 1 5
307 1 5
294 1 5
230 1 5
397 1 5
281 1 5
341 1 5
290 1 5
330 1 5
391 1 5
299 1 5
302 1 5
351 1 5
360 1 5
354 1 5
356 1 5
367 1 5
369 1 5
347 1 5
309 1 5
359 1 5
269 1 5
362 1 5
364 1 5
375 1 5
316 1 5
334 1 5
352 1 5
366 1 5
368 1 5
378 1 5
340 1 5
328 1 5
370 1 5
371 1 5
372 1 5
382 1 5
374 1 5
384 1 5
385 1 5
338 1 5
376 1 5
386 1 5
388 1 5
349 1 5
332 1 5
380 1 5
390 1 5
392 1 5
389 1 5
353 1 5
252 1 5
394 1 5
298 1 5
396 1 5
398 1 5
399 1 5
400 1 5
ITEM: TIMESTEP
3000
ITEM: NUMBER OF ATOMS
400
ITEM: BOX BOUNDS pp pp pp
-1.7227198108053874e-04 1.6580172271981091e+01
-1.7227198108053874e-04 1.6580172271981091e+01
-2.7563516972921727e-04 2.6528275635169692e+01
ITEM: ATOMS id type c_structure
1 1 5
2 1 5
3 1 5
11 1 5
13 1 5
51 1 3
53 1 3
61 1 5
63 1 5
4 1 5
5 1 5
15 1 5
55 1 3
65 1 5
6 1 3
7 1 3
8 1 3
17 1 3
57 1 5
67 1 3
9 1 3
10 1 5
19 1 5
59 1 3
69 1 5
12 1 3
21 1 3
23 1 5
71 1 3
73 1 3
14 1 5
25 1 3
75 1 5
16 1 3
18 1 5
27 1 5
77 1 5
20 1 5
29 1 5
79 1 3
22 1 3
31 1 3
32 1 5
33 1 5
81 1 3
83 1 3
24 1 5
34 1 5
35 1 5
85 1 5
26 1 5
28 1 5
36 1 5
37 1 5
38 1 3
87 1 5
30 1 3
39 1 5
40 1 5
89 1 3
41 1 5
42 1 5
43 1 5
91 1 5
93 1 3
44 1 3
45 1 5
95 1 3
46 1 3
47 1 3
48 1 3
97 1 3
49 1 3
50 1 5
99 1 5
52 1 3
101 1 5
103 1 3
111 1 5
113 1 5
54 1 5
105 1 5
115 1 5
56 1 5
58 1 5
107 1 5
117 1 3
60 1 3
109 1 5
119 1 3
62 1 5
121 1 5
123 1 5
64 1 5
125 1 3
66 1 3
68 1 3
127 1 3
70 1 5
129 1 3
72 1 3
82 1 5
131 1 5
133 1 3
74 1 5
84 1 3
135 1 3
76 1 5
78 1 5
86 1 3
88 1 3
137 1 3
80 1 3
90 1 5
139 1 5
92 1 5
141 1 5
143 1 5
94 1 3
145 1 3
96 1 5
98 1 5
147 1 5
100 1 5
149 1 5
102 1 3
151 1 5
153 1 3
161 1 3
163 1 3
104 1 5
155 1 5
165 1 5
106 1 5
108 1 5
157 1 5
167 1 5
110 1 5
159 1 5
169 1 3
112 1 5
171 1 5
173 1 3
114 1 5
175 1 5
116 1 5
118 1 3
177 1 5
120 1 5
179 1 3
122 1 5
132 1 5
181 1 5
183 1 3
124 1 3
134 1 3
185 1 3
126 1 3
128 1 3
136 1 5
138 1 5
187 1 5
130 1 5
140 1 5
189 1 3
142 1 5
191 1 5
193 1 3
144 1 3
195 1 5
146 1 5
148 1 5
197 1 5
150 1 5
199 1 5
152 1 3
211 1 5
203 1 5
262 1 5
154 1 5
215 1 5
156 1 5
158 1 5
217 1 5
265 1 5
267 1 5
160 1 5
209 1 5
219 1 5
210 1 3
162 1 3
223 1 5
264 1 5
221 1 5
292 1 5
164 1 5
225 1 5
216 1 5
226 1 5
166 1 5
168 1 5
227 1 5
170 1 5
229 1 5
172 1 5
182 1 5
222 1 5
231 1 5
174 1 5
184 1 5
235 1 5
236 1 5
176 1 5
178 1 5
186 1 5
188 1 5
237 1 5
180 1 5
190 1 5
321 1 5
242 1 5
201 1 5
192 1 5
241 1 5
243 1 5
205 1 5
255 1 5
194 1 5
245 1 5
206 1 5
196 1 5
198 1 5
247 1 5
200 1 5
249 1 5
213 1 5
282 1 5
271 1 5
342 1 5
308 1 5
296 1 5
246 1 5
306 1 5
274 1 5
259 1 5
327 1 5
238 1 5
248 1 5
288 1 3
208 1 5
319 1 5
314 1 5
212 1 5
395 1 5
312 1 5
323 1 5
335 1 5
218 1 5
280 1 5
277 1 5
377 1 5
279 1 5
257 1 5
261 1 5
381 1 5
322 1 5
272 1 5
253 1 5
234 1 5
251 1 5
233 1 5
224 1 5
276 1 5
239 1 5
287 1 5
289 1 5
345 1 5
284 1 5
270 1 5
339 1 5
244 1 5
313 1 5
232 1 5
295 1 5
317 1 5
393 1 5
291 1 5
305 1 5
207 1 5
286 1 5
256 1 5
250 1 5
240 1 5
297 1 5
343 1 5
202 1 5
204 1 5
260 1 5
254 1 5
304 1 5
365 1 5
315 1 5
357 1 3
355 1 5
278 1 5
228 1 5
268 1 3
301 1 3
358 1 3
363 1 5
379 1 3
361 1 3
266 1 5
324 1 5
311 1 5
273 1 5
329 1 5
258 1 5
337 1 5
318 1 5
220 1 5
310 1 5
214 1 5
373 1 5
283 1 5
383 1 5
300 1 5
275 1 5
326 1 5
344 1 5
325 1 5
285 1 5
348 1 5
333 1 5
387 1 5
331 1 5
320 1 5
263 1 5
303 1 5
350 1 5
293 1 5
346 1 5
336 1 5
307 1 5
294 1 5
230 1 4
397 1 5
281 1 5
341 1 5
290 1 5
330 1 5
391 1 5
299 1 5
302 1 5
351 1 5
360 1 5
354 1 5
356 1 3
367 1 3
369 1 3
347 1 5
309 1 5
359 1 3
269 1 3
362 1 5
364 1 5
375 1 3
316 1 5
334 1 5
352 1 5
366 1 3
368 1 5
378 1 5
340 1 5
328 1 3
370 1 3
371 1 5
372 1 5
382 1 5
374 1 5
384 1 5
385 1 5
338 1 5
376 1 5
386 1 5
388 1 5
349 1 5
332 1 5
380 1 5
390 1 5
392 1 5
389 1 5
353 1 5
252 1 5
394 1 5
298 1 5
396 1 5
398 1 5
399 1 5
400 1 5
ITEM: TIMESTEP
3100
ITEM: NUMBER OF ATOMS
400
ITEM: BOX BOUNDS pp pp pp
-2.4554858188161348e-04 1.6580245548581857e+01
-2.4554858188161348e-04 1.6580245548581857e+01
-3.9287773099743655e-04 2.6528392877730983e+01
ITEM: ATOMS id type c_structure
1 1 3
2 1 3
3 1 3
11 1 3
13 1 3
61 1 5
4 1 5
65 1 5
6 1 5
7 1 3
8 1 3
17 1 3
67 1 3
10 1 5
19 1 5
69 1 5
12 1 5
71 1 5
73 1 5
22 1 3
362 1 5
14 1 5
25 1 5
75 1 5
24 1 5
16 1 5
18 1 5
27 1 3
77 1 5
26 1 3
28 1 5
20 1 5
79 1 5
31 1 5
32 1 3
33 1 3
81 1 3
83 1 3
34 1 3
85 1 3
36 1 3
38 1 5
87 1 5
30 1 5
39 1 5
40 1 5
89 1 5
51 1 3
53 1 3
41 1 5
42 1 3
91 1 3
93 1 3
55 1 3
44 1 3
95 1 3
46 1 3
57 1 3
48 1 3
97 1 3
9 1 3
59 1 3
50 1 3
99 1 5
63 1 5
52 1 3
111 1 3
113 1 3
54 1 3
115 1 3
56 1 3
58 1 3
117 1 3
60 1 5
109 1 3
119 1 3
62 1 5
121 1 3
123 1 3
64 1 3
125 1 3
74 1 3
66 1 3
68 1 3
127 1 3
76 1 3
78 1 5
70 1 5
129 1 3
80 1 5
72 1 3
82 1 3
133 1 3
84 1 5
135 1 5
86 1 5
88 1 5
137 1 3
131 1 3
90 1 5
139 1 3
103 1 5
92 1 3
143 1 5
105 1 5
94 1 5
145 1 5
107 1 3
96 1 3
98 1 3
147 1 3
101 1 3
141 1 3
100 1 3
149 1 3
102 1 3
153 1 3
161 1 5
163 1 3
104 1 3
155 1 3
165 1 5
106 1 3
108 1 5
157 1 5
167 1 3
110 1 3
159 1 5
169 1 5
112 1 3
171 1 3
173 1 3
114 1 3
175 1 3
124 1 3
164 1 5
116 1 3
118 1 3
177 1 3
126 1 3
166 1 5
120 1 3
179 1 5
122 1 3
132 1 3
183 1 5
134 1 5
185 1 3
174 1 5
184 1 5
128 1 3
136 1 5
138 1 3
187 1 3
186 1 5
181 1 3
130 1 3
140 1 3
189 1 3
151 1 3
142 1 3
191 1 3
193 1 3
144 1 5
195 1 3
146 1 3
148 1 5
197 1 3
150 1 5
199 1 5
152 1 5
211 1 5
262 1 5
201 1 5
213 1 3
154 1 5
215 1 5
156 1 5
217 1 5
265 1 5
267 1 5
327 1 3
158 1 5
160 1 5
209 1 5
162 1 5
264 1 3
221 1 3
292 1 3
172 1 5
223 1 3
225 1 3
377 1 3
168 1 5
227 1 3
178 1 5
218 1 5
257 1 5
170 1 5
229 1 5
261 1 5
270 1 5
182 1 5
222 1 5
231 1 5
226 1 5
235 1 5
236 1 5
233 1 5
224 1 5
176 1 3
188 1 3
237 1 5
287 1 5
180 1 5
190 1 5
321 1 5
242 1 5
203 1 3
192 1 3
241 1 5
243 1 3
205 1 5
194 1 5
245 1 5
196 1 5
206 1 5
198 1 5
247 1 5
207 1 5
200 1 5
249 1 5
250 1 5
210 1 3
282 1 3
271 1 3
342 1 3
319 1 5
296 1 5
304 1 5
246 1 5
274 1 5
238 1 5
315 1 3
219 1 3
248 1 5
288 1 3
208 1 3
314 1 5
212 1 5
363 1 5
216 1 5
395 1 5
312 1 5
273 1 5
259 1 5
323 1 3
280 1 5
279 1 5
322 1 5
272 1 5
234 1 5
339 1 5
393 1 5
283 1 3
335 1 3
276 1 5
232 1 5
277 1 5
345 1 5
310 1 5
275 1 5
239 1 5
289 1 5
240 1 5
255 1 3
251 1 5
244 1 5
313 1 5
306 1 5
295 1 5
317 1 5
305 1 5
291 1 5
286 1 5
230 1 5
297 1 5
343 1 5
308 1 3
204 1 5
350 1 5
202 1 5
254 1 5
365 1 5
256 1 5
357 1 3
278 1 5
294 1 5
316 1 5
228 1 3
268 1 3
330 1 3
284 1 3
266 1 5
220 1 5
311 1 5
329 1 5
383 1 3
355 1 5
337 1 5
318 1 5
326 1 5
320 1 5
309 1 3
340 1 3
253 1 5
361 1 3
333 1 5
214 1 3
344 1 3
325 1 3
258 1 5
285 1 5
348 1 3
331 1 5
397 1 3
381 1 5
332 1 5
260 1 5
300 1 5
263 1 5
293 1 5
346 1 5
307 1 5
336 1 5
281 1 5
298 1 5
290 1 5
391 1 5
299 1 5
301 1 3
351 1 3
364 1 5
5 1 3
15 1 5
302 1 5
354 1 3
334 1 5
356 1 3
367 1 3
369 1 5
358 1 3
360 1 5
359 1 3
21 1 3
379 1 3
324 1 3
269 1 3
371 1 3
23 1 3
375 1 3
352 1 5
366 1 3
368 1 5
378 1 5
376 1 3
29 1 5
328 1 3
370 1 5
373 1 3
372 1 3
382 1 3
35 1 3
374 1 3
384 1 3
37 1 3
385 1 3
338 1 3
388 1 3
349 1 3
387 1 3
380 1 3
390 1 5
43 1 3
303 1 5
392 1 5
389 1 5
45 1 3
353 1 3
252 1 5
394 1 5
47 1 3
347 1 5
386 1 5
396 1 3
398 1 5
49 1 5
341 1 5
399 1 5
400 1 3
ITEM: TIMESTEP
3200
ITEM: NUMBER OF ATOMS
400
ITEM: BOX BOUNDS pp pp pp
-3.3020885145700491e-04 1.6580330208851443e+01
-3.3020885145700491e-04 1.6580330208851443e+01
-5.2833416232019449e-04 2.6528528334162321e+01
ITEM: ATOMS id type c_structure
1 1 3
2 1 3
3 1 3
11 1 3
13 1 3
61 1 3
4 1 3
65 1 3
6 1 5
7 1 5
8 1 5
17 1 3
67 1 3
10 1 3
19 1 3
69 1 3
12 1 3
71 1 3
73 1 3
22 1 3
362 1 3
14 1 3
25 1 3
75 1 5
24 1 5
16 1 3
18 1 3
27 1 3
77 1 3
26 1 5
28 1 3
20 1 3
79 1 3
31 1 3
32 1 3
33 1 3
81 1 3
83 1 3
34 1 3
85 1 5
36 1 3
38 1 3
87 1 5
30 1 3
39 1 5
40 1 3
89 1 3
51 1 3
53 1 3
41 1 3
42 1 3
91 1 3
93 1 3
55 1 5
44 1 5
95 1 5
46 1 5
57 1 5
48 1 5
97 1 3
9 1 5
59 1 5
50 1 5
99 1 5
63 1 3
52 1 3
111 1 3
113 1 3
54 1 3
115 1 3
56 1 3
58 1 3
117 1 3
60 1 3
109 1 3
119 1 3
62 1 3
121 1 5
123 1 5
64 1 3
125 1 3
74 1 5
66 1 3
68 1 3
127 1 5
76 1 5
78 1 3
70 1 3
129 1 5
80 1 5
72 1 5
82 1 3
133 1 5
84 1 3
135 1 5
86 1 5
88 1 3
137 1 5
131 1 5
90 1 5
139 1 5
103 1 3
92 1 3
143 1 5
105 1 3
94 1 5
145 1 3
107 1 5
96 1 5
98 1 3
147 1 3
101 1 3
141 1 5
100 1 3
149 1 5
102 1 3
153 1 5
161 1 3
163 1 3
104 1 3
155 1 5
165 1 3
106 1 5
108 1 5
157 1 5
167 1 3
110 1 3
159 1 3
169 1 3
112 1 5
171 1 5
173 1 5
114 1 5
175 1 5
124 1 5
164 1 5
116 1 3
118 1 5
177 1 5
126 1 3
166 1 3
120 1 3
179 1 5
122 1 5
132 1 5
183 1 5
134 1 5
185 1 3
174 1 5
184 1 5
128 1 5
136 1 3
138 1 3
187 1 5
186 1 3
181 1 5
130 1 5
140 1 5
189 1 5
151 1 3
142 1 3
191 1 3
193 1 5
144 1 5
195 1 5
146 1 5
148 1 5
197 1 3
150 1 3
199 1 3
152 1 3
211 1 3
262 1 3
201 1 3
213 1 3
154 1 5
215 1 5
156 1 5
217 1 5
265 1 5
267 1 5
327 1 5
158 1 5
160 1 3
209 1 5
162 1 3
264 1 3
221 1 3
292 1 5
172 1 5
223 1 3
225 1 3
377 1 3
168 1 5
227 1 5
178 1 5
218 1 5
257 1 5
170 1 3
229 1 5
261 1 5
270 1 5
182 1 5
222 1 5
231 1 5
226 1 5
235 1 3
236 1 3
233 1 3
224 1 5
176 1 3
188 1 5
237 1 5
287 1 3
180 1 5
190 1 5
321 1 5
242 1 5
203 1 3
192 1 3
241 1 3
243 1 5
205 1 5
194 1 5
245 1 5
196 1 5
206 1 5
198 1 5
247 1 3
207 1 5
200 1 5
249 1 5
250 1 5
210 1 3
282 1 3
271 1 3
342 1 3
319 1 3
296 1 5
304 1 5
246 1 5
274 1 3
238 1 5
315 1 5
219 1 5
248 1 5
288 1 3
208 1 3
314 1 5
212 1 5
363 1 3
216 1 3
395 1 5
312 1 5
273 1 5
259 1 3
323 1 3
280 1 5
279 1 3
322 1 3
272 1 3
234 1 5
339 1 5
393 1 5
283 1 5
335 1 5
276 1 5
232 1 5
277 1 3
345 1 5
310 1 3
275 1 5
239 1 5
289 1 5
240 1 5
255 1 3
251 1 3
244 1 5
313 1 5
306 1 5
295 1 3
317 1 5
305 1 5
291 1 5
286 1 5
230 1 5
297 1 5
343 1 3
308 1 3
204 1 3
350 1 5
202 1 5
254 1 5
365 1 5
256 1 5
357 1 5
278 1 3
294 1 5
316 1 3
228 1 3
268 1 3
330 1 5
284 1 5
266 1 5
220 1 3
311 1 5
329 1 5
383 1 5
355 1 5
337 1 5
318 1 5
326 1 5
320 1 3
309 1 3
340 1 3
253 1 5
361 1 3
333 1 5
214 1 5
344 1 5
325 1 5
258 1 5
285 1 3
348 1 5
331 1 3
397 1 3
381 1 3
332 1 5
260 1 3
300 1 5
263 1 3
293 1 5
346 1 3
307 1 3
336 1 5
281 1 5
298 1 5
290 1 5
391 1 5
299 1 3
301 1 3
351 1 3
364 1 3
5 1 3
15 1 3
302 1 3
354 1 3
334 1 3
356 1 3
367 1 3
369 1 3
358 1 3
360 1 3
359 1 3
21 1 3
379 1 3
324 1 3
269 1 3
371 1 3
23 1 3
375 1 3
352 1 3
366 1 3
368 1 3
378 1 5
376 1 3
29 1 3
328 1 3
370 1 3
373 1 3
372 1 3
382 1 3
35 1 3
374 1 3
384 1 3
37 1 3
385 1 5
338 1 3
388 1 5
349 1 3
387 1 5
380 1 3
390 1 5
43 1 3
303 1 3
392 1 3
389 1 3
45 1 3
353 1 3
252 1 3
394 1 3
47 1 5
347 1 3
386 1 5
396 1 5
398 1 5
49 1 5
341 1 3
399 1 5
400 1 3
ITEM: TIMESTEP
3300
ITEM: NUMBER OF ATOMS
400
ITEM: BOX BOUNDS pp pp pp
-4.2613648759872016e-04 1.6580426136487610e+01
-4.2613648759872016e-04 1.6580426136487610e+01
-6.8181838012953055e-04 2.6528681818380146e+01
ITEM: ATOMS id type c_structure
1 1 3
2 1 3
3 1 3
11 1 3
13 1 3
61 1 3
4 1 3
65 1 3
6 1 3
7 1 3
8 1 3
17 1 5
67 1 5
10 1 3
19 1 3
69 1 3
12 1 3
71 1 3
73 1 3
22 1 5
362 1 5
14 1 3
25 1 5
75 1 3
24 1 3
16 1 5
18 1 5
27 1 5
77 1 5
26 1 3
28 1 3
20 1 3
79 1 3
31 1 5
32 1 5
33 1 5
81 1 5
83 1 5
34 1 3
85 1 5
36 1 3
38 1 3
87 1 5
30 1 3
39 1 3
40 1 3
89 1 3
51 1 3
53 1 3
41 1 3
42 1 3
91 1 3
93 1 3
55 1 3
44 1 3
95 1 3
46 1 3
57 1 3
48 1 3
97 1 3
9 1 3
59 1 3
50 1 3
99 1 3
63 1 3
52 1 3
111 1 3
113 1 3
54 1 3
115 1 5
56 1 3
58 1 3
117 1 3
60 1 3
109 1 3
119 1 3
62 1 3
121 1 5
123 1 5
64 1 3
125 1 5
74 1 5
66 1 3
68 1 3
127 1 3
76 1 5
78 1 3
70 1 3
129 1 3
80 1 3
72 1 3
82 1 3
133 1 5
84 1 3
135 1 5
86 1 5
88 1 3
137 1 5
131 1 5
90 1 3
139 1 3
103 1 3
92 1 3
143 1 3
105 1 3
94 1 3
145 1 3
107 1 3
96 1 3
98 1 3
147 1 3
101 1 3
141 1 3
100 1 3
149 1 3
102 1 3
153 1 3
161 1 3
163 1 3
104 1 3
155 1 5
165 1 5
106 1 3
108 1 3
157 1 5
167 1 5
110 1 3
159 1 5
169 1 5
112 1 3
171 1 5
173 1 5
114 1 5
175 1 5
124 1 5
164 1 3
116 1 5
118 1 5
177 1 5
126 1 3
166 1 3
120 1 3
179 1 5
122 1 5
132 1 3
183 1 3
134 1 3
185 1 3
174 1 3
184 1 3
128 1 3
136 1 3
138 1 3
187 1 3
186 1 3
181 1 5
130 1 5
140 1 3
189 1 5
151 1 5
142 1 3
191 1 3
193 1 3
144 1 3
195 1 5
146 1 5
148 1 3
197 1 5
150 1 3
199 1 3
152 1 3
211 1 5
262 1 3
201 1 5
213 1 5
154 1 5
215 1 3
156 1 5
217 1 3
265 1 3
267 1 5
327 1 5
158 1 5
160 1 5
209 1 5
162 1 5
264 1 3
221 1 5
292 1 5
172 1 5
223 1 3
225 1 3
377 1 3
168 1 5
227 1 3
178 1 3
218 1 5
257 1 5
170 1 5
229 1 5
261 1 5
270 1 5
182 1 3
222 1 5
231 1 5
226 1 3
235 1 5
236 1 3
233 1 5
224 1 5
176 1 3
188 1 3
237 1 3
287 1 3
180 1 5
190 1 5
321 1 5
242 1 3
203 1 3
192 1 3
241 1 5
243 1 5
205 1 5
194 1 5
245 1 5
196 1 5
206 1 5
198 1 3
247 1 3
207 1 5
200 1 5
249 1 3
250 1 5
210 1 5
282 1 5
271 1 5
342 1 3
319 1 5
296 1 3
304 1 5
246 1 5
274 1 3
238 1 5
315 1 5
219 1 5
248 1 5
288 1 5
208 1 5
314 1 5
212 1 5
363 1 3
216 1 3
395 1 5
312 1 5
273 1 5
259 1 5
323 1 3
280 1 3
279 1 5
322 1 5
272 1 5
234 1 5
339 1 5
393 1 5
283 1 5
335 1 5
276 1 5
232 1 5
277 1 3
345 1 5
310 1 5
275 1 5
239 1 5
289 1 3
240 1 5
255 1 5
251 1 5
244 1 5
313 1 5
306 1 5
295 1 5
317 1 5
305 1 5
291 1 5
286 1 5
230 1 5
297 1 5
343 1 3
308 1 5
204 1 3
350 1 3
202 1 5
254 1 5
365 1 3
256 1 5
357 1 5
278 1 3
294 1 5
316 1 3
228 1 5
268 1 5
330 1 5
284 1 3
266 1 3
220 1 3
311 1 3
329 1 3
383 1 3
355 1 3
337 1 3
318 1 3
326 1 3
320 1 5
309 1 3
340 1 3
253 1 5
361 1 5
333 1 5
214 1 5
344 1 3
325 1 3
258 1 3
285 1 3
348 1 3
331 1 3
397 1 3
381 1 3
332 1 5
260 1 5
300 1 5
263 1 3
293 1 5
346 1 3
307 1 5
336 1 5
281 1 5
298 1 3
290 1 5
391 1 3
299 1 3
301 1 3
351 1 3
364 1 3
5 1 3
15 1 3
302 1 3
354 1 3
334 1 3
356 1 3
367 1 3
369 1 3
358 1 3
360 1 3
359 1 3
21 1 3
379 1 3
324 1 5
269 1 3
371 1 3
23 1 5
375 1 5
352 1 5
366 1 3
368 1 3
378 1 3
376 1 3
29 1 3
328 1 3
370 1 3
373 1 3
372 1 3
382 1 3
35 1 3
374 1 3
384 1 3
37 1 3
385 1 3
338 1 3
388 1 3
349 1 3
387 1 3
380 1 3
390 1 3
43 1 3
303 1 3
392 1 3
389 1 3
45 1 3
353 1 3
252 1 3
394 1 3
47 1 3
347 1 3
386 1 3
396 1 3
398 1 3